h 0.5 0 6 tcp 40 ------- 0 0.0 5.0 0 0
+ 0.53 0 6 tcp 40 ------- 0 0.0 5.0 0 0
- 0.53 0 6 tcp 40 ------- 0 0.0 5.0 0 0
d 0.530004 4 6 tcp 40 ------- 0 0.0 5.0 0 0
d 0.530004 3 6 tcp 40 ------- 0 0.0 5.0 0 0
d 0.530004 2 6 tcp 40 ------- 0 0.0 5.0 0 0
d 0.530004 1 6 tcp 40 ------- 0 0.0 5.0 0 0
r 0.560004 6 5 tcp 40 ------- 0 0.0 5.0 0 0
h 3.5 0 6 tcp 40 ---A--- 0 0.0 5.0 0 1
+ 3.53 0 6 tcp 40 ---A--- 0 0.0 5.0 0 1
- 3.53 0 6 tcp 40 ---A--- 0 0.0 5.0 0 1
d 3.530004 4 6 tcp 40 ---A--- 0 0.0 5.0 0 1
d 3.530004 3 6 tcp 40 ---A--- 0 0.0 5.0 0 1
d 3.530004 2 6 tcp 40 ---A--- 0 0.0 5.0 0 1
d 3.530004 1 6 tcp 40 ---A--- 0 0.0 5.0 0 1
r 3.560004 6 5 tcp 40 ---A--- 0 0.0 5.0 0 1
h 9.5 0 6 tcp 40 ---A--- 0 0.0 5.0 0 2
+ 9.53 0 6 tcp 40 ---A--- 0 0.0 5.0 0 2
- 9.53 0 6 tcp 40 ---A--- 0 0.0 5.0 0 2
d 9.530004 4 6 tcp 40 ---A--- 0 0.0 5.0 0 2
d 9.530004 3 6 tcp 40 ---A--- 0 0.0 5.0 0 2
d 9.530004 2 6 tcp 40 ---A--- 0 0.0 5.0 0 2
d 9.530004 1 6 tcp 40 ---A--- 0 0.0 5.0 0 2
r 9.560004 6 5 tcp 40 ---A--- 0 0.0 5.0 0 2
h 21.5 0 6 tcp 40 ---A--- 0 0.0 5.0 0 3
+ 21.53 0 6 tcp 40 ---A--- 0 0.0 5.0 0 3
- 21.53 0 6 tcp 40 ---A--- 0 0.0 5.0 0 3
d 21.530004 4 6 tcp 40 ---A--- 0 0.0 5.0 0 3
d 21.530004 3 6 tcp 40 ---A--- 0 0.0 5.0 0 3
d 21.530004 2 6 tcp 40 ---A--- 0 0.0 5.0 0 3
d 21.530004 1 6 tcp 40 ---A--- 0 0.0 5.0 0 3
r 21.560004 6 5 tcp 40 ---A--- 0 0.0 5.0 0 3
h 45.5 0 6 tcp 40 ---A--- 0 0.0 5.0 0 4
+ 45.53 0 6 tcp 40 ---A--- 0 0.0 5.0 0 4
- 45.53 0 6 tcp 40 ---A--- 0 0.0 5.0 0 4
d 45.530004 4 6 tcp 40 ---A--- 0 0.0 5.0 0 4
d 45.530004 3 6 tcp 40 ---A--- 0 0.0 5.0 0 4
d 45.530004 2 6 tcp 40 ---A--- 0 0.0 5.0 0 4
d 45.530004 1 6 tcp 40 ---A--- 0 0.0 5.0 0 4
r 45.560004 6 5 tcp 40 ---A--- 0 0.0 5.0 0 4
